<?xml version="1.0" encoding="UTF-8"?>

<configuration xmlns:xsi="http://www.w3.org/2001/XMLSchema-instance" xsi:noNamespaceSchemaLocation="http://sumo.dlr.de/xsd/sumoConfiguration.xsd">

    <input>
        <net-file value="road.net.xml"/>
        <route-files value="road.rou.xml"/>
    </input>

    <time>
        <begin value="0"/>
    </time>

    <output>
        <summary value="summary.xml"/>
        <tripinfo-output value="tripinfo.xml"/>
    </output>

</configuration>
